LAMMPS data file. CGCMM style. atom_style full generated by VMD/TopoTools v1.7 on Fri May 24 01:41:11 EDT 2024
 7200 atoms
 6500 bonds
 9200 angles
 0 dihedrals
 0 impropers
 4 atom types
 4 bond types
 8 angle types
 0 dihedral types
 0 improper types
 -0.918660 16.461473  xlo xhi
 -0.837221 16.542912  ylo yhi
 0.364101 17.744234  zlo zhi

# Pair Coeffs
#
# 1  1
# 2  2
# 3  3
# 4  4

# Bond Coeffs
#
# 1  1
# 2  2
# 3  3
# 4  4

# Angle Coeffs
#
# 1  1-1-1
# 2  1-1-2
# 3  1-1-3
# 4  1-3-1
# 5  1-3-3
# 6  2-1-3
# 7  3-1-3
# 8  3-3-3

 Masses

 1 1.000000 # 1
 2 1.000000 # 2
 3 1.000000 # 3
 4 1.000000 # 4

 Atoms # full

1 1 1 -0.250000 3.379541 9.760294 3.088983 # 1 
2 1 2 0.250000 2.950199 9.952051 2.240576 # 2 
3 1 3 -1.000000 4.196742 9.244561 3.173266 # 3 
4 1 3 -1.000000 4.142588 9.440437 4.121738 # 3 
5 1 1 -0.250000 4.051262 8.605249 3.636948 # 1 
6 1 2 0.250000 4.772262 9.026792 4.130264 # 2 
7 1 1 -0.250000 4.323377 7.674948 3.599622 # 1 
8 1 2 0.250000 4.284954 7.691313 2.630522 # 2 
9 1 1 -0.250000 3.384122 7.498613 3.433470 # 1 
10 1 2 0.250000 3.108458 8.261074 2.900964 # 2 
11 1 3 -1.000000 3.827228 6.637353 3.380666 # 3 
12 1 3 -1.000000 4.202492 5.823286 3.751303 # 3 
13 1 1 -0.250000 4.250202 5.777005 2.783583 # 1 
14 1 2 0.250000 4.344724 6.713357 3.018550 # 2 
15 1 1 -0.250000 4.238310 6.657844 3.189639 # 1 
16 1 2 0.250000 4.830420 7.347472 3.528341 # 2 
17 1 3 -1.000000 4.235624 6.658455 2.219643 # 3 
18 1 1 -0.250000 3.397248 6.273589 1.919804 # 1 
19 1 2 0.250000 3.312351 6.480435 0.975925 # 2 
20 1 1 -0.250000 4.112699 6.418426 1.281015 # 1 
21 1 2 0.250000 3.184408 6.508937 1.014587 # 2 
22 1 1 -0.250000 4.511486 6.800172 2.078597 # 1 
23 1 2 0.250000 4.068741 5.943737 1.971846 # 2 
24 1 1 -0.250000 4.367635 7.620391 2.576038 # 1 
25 1 2 0.250000 3.816089 8.215612 2.044616 # 2 
26 1 1 -0.250000 4.649824 6.955574 1.928515 # 1 
27 1 2 0.250000 5.536146 6.561746 1.913231 # 2 
28 1 1 -0.250000 4.631219 6.760231 2.878459 # 1 
29 1 2 0.250000 5.208942 7.373484 2.397775 # 2 
30 1 1 -0.250000 4.958625 6.382588 3.709778 # 1 
31 1 2 0.250000 5.401491 5.533829 3.553645 # 2 
32 1 1 -0.250000 5.632827 7.021796 3.430915 # 1 
33 1 2 0.250000 5.488530 6.904812 2.478868 # 2 
34 1 1 -0.250000 5.296679 6.254735 3.920324 # 1 
35 1 2 0.250000 4.525173 5.889796 3.459350 # 2 
36 1 1 -0.250000 4.425744 6.575641 3.638560 # 1 
37 1 2 0.250000 3.667215 6.934054 3.151658 # 2 
38 1 3 -1.000000 4.255403 6.464459 4.586991 # 3 
39 1 1 -0.250000 4.700364 6.549013 3.729226 # 1 
40 1 2 0.250000 4.731796 6.551653 2.759739 # 2 
41 1 1 -0.250000 5.123177 5.878012 3.170758 # 1 
42 1 2 0.250000 5.391777 5.906538 4.102392 # 2 
43 1 1 -0.250000 5.636174 5.375531 3.822868 # 1 
44 1 2 0.250000 6.547680 5.409028 3.492816 # 2 
45 1 1 -0.250000 4.935325 5.921997 4.211564 # 1 
46 1 2 0.250000 5.310562 5.108980 4.584526 # 2 
47 1 1 -0.250000 5.125657 6.004139 3.263974 # 1 
48 1 2 0.250000 4.223315 6.350665 3.345202 # 2 
49 1 1 -0.250000 5.969836 5.735473 2.868903 # 1 
50 1 2 0.250000 5.476422 5.302336 3.582931 # 2 
51 1 1 -0.250000 5.757651 4.888635 3.291683 # 1 
52 1 2 0.250000 6.499822 5.513131 3.300960 # 2 
53 1 1 -0.250000 5.463101 5.044480 2.380720 # 1 
54 1 2 0.250000 5.476932 4.240369 1.838396 # 2 
55 1 1 -0.250000 5.643777 5.082252 1.428444 # 1 
56 1 2 0.250000 5.899113 4.154687 1.552244 # 2 
57 1 1 -0.250000 5.514155 4.713212 0.540803 # 1 
58 1 2 0.250000 5.106997 5.125541 -0.237083 # 2 
59 1 1 -0.250000 5.627490 5.589165 0.941752 # 1 
60 1 2 0.250000 4.831495 5.374952 1.453029 # 2 
61 1 1 -0.250000 5.497950 6.453736 0.521471 # 1 
62 1 2 0.250000 6.457998 6.541399 0.628814 # 2 
63 1 1 -0.250000 5.767255 6.906795 1.335788 # 1 
64 1 2 0.250000 6.241108 7.715717 1.086772 # 2 
65 1 1 -0.250000 5.326821 7.771039 1.336692 # 1 
66 1 2 0.250000 5.544688 7.483294 2.237046 # 2 
67 2 1 -0.250000 11.914588 14.704705 12.274007 # 1 
68 2 2 0.250000 11.710952 14.035158 11.602338 # 2 
69 2 1 -0.250000 11.429303 13.875862 12.138296 # 1 
70 2 2 0.250000 11.454690 14.494244 11.391397 # 2 
71 2 1 -0.250000 11.604080 14.812970 11.958907 # 1 
72 2 2 0.250000 11.894710 15.493459 11.331716 # 2 
73 2 1 -0.250000 11.626194 15.755629 12.186514 # 1 
74 2 2 0.250000 11.085221 15.051985 11.795191 # 2 
75 2 1 -0.250000 11.799601 16.167885 13.047255 # 1 
76 2 2 0.250000 11.766503 16.163321 14.016679 # 2 
77 2 1 -0.250000 11.960176 15.291724 13.431257 # 1 
78 2 2 0.250000 12.061462 14.329599 13.360848 # 2 
79 2 3 -1.000000 12.258912 15.945731 14.082356 # 3 
80 2 1 -0.250000 12.574023 16.044876 13.170339 # 1 
81 2 2 0.250000 11.613226 16.173941 13.203691 # 2 
82 2 1 -0.250000 12.346882 16.913324 13.537906 # 1 
83 2 2 0.250000 12.215441 16.715311 14.478339 # 2 
84 2 1 -0.250000 13.273967 16.802813 13.800967 # 1 
85 2 2 0.250000 13.435170 16.742083 14.755548 # 2 
86 2 1 -0.250000 12.575639 17.270929 13.317123 # 1 
87 2 2 0.250000 13.148007 17.491337 14.068599 # 2 
88 2 3 -1.000000 13.024220 16.979500 14.126285 # 3 
89 2 3 -1.000000 13.813484 17.434231 13.792845 # 3 
90 2 1 -0.250000 13.909915 18.203819 14.375370 # 1 
91 2 2 0.250000 13.770532 17.585562 13.641047 # 2 
92 2 1 -0.250000 14.293617 18.099449 15.260119 # 1 
93 2 2 0.250000 14.406856 17.510351 14.497859 # 2 
94 2 1 -0.250000 14.570003 18.008896 14.334748 # 1 
95 2 2 0.250000 14.484716 17.043945 14.284778 # 2 
96 2 1 -0.250000 15.324726 17.413858 14.465989 # 1 
97 2 2 0.250000 15.983301 18.104767 14.293289 # 2 
98 2 1 -0.250000 15.523649 17.318766 13.521380 # 1 
99 2 2 0.250000 15.886856 17.496452 14.403088 # 2 
100 2 1 -0.250000 15.527369 17.706560 12.632279 # 1 
101 2 2 0.250000 14.702920 17.530249 12.152594 # 2 
102 2 1 -0.250000 15.742028 17.384140 11.742973 # 1 
103 2 2 0.250000 14.787259 17.393396 11.913941 # 2 
104 2 1 -0.250000 15.090160 17.622133 12.420710 # 1 
105 2 2 0.250000 15.500717 17.264723 11.617840 # 2 
106 2 1 -0.250000 14.844163 17.926558 13.308241 # 1 
107 2 2 0.250000 14.795787 17.833673 12.343911 # 2 
108 2 1 -0.250000 15.626506 17.447683 13.623709 # 1 
109 2 2 0.250000 15.321187 17.739206 12.750384 # 2 
110 2 1 -0.250000 15.198225 17.092825 12.829007 # 1 
111 2 2 0.250000 15.213224 17.087370 13.798876 # 2 
112 2 1 -0.250000 15.496829 16.625143 13.624627 # 1 
113 2 2 0.250000 15.177797 16.752911 12.717547 # 2 
114 2 1 -0.250000 14.746362 16.117603 13.278072 # 1 
115 2 2 0.250000 14.830117 16.445797 12.369131 # 2 
116 2 1 -0.250000 15.670856 16.324434 13.486474 # 1 
117 2 2 0.250000 15.707808 16.217913 14.449899 # 2 
118 2 1 -0.250000 14.766064 16.667379 13.554592 # 1 
119 2 2 0.250000 14.161133 17.335470 13.195968 # 2 
120 2 3 -1.000000 13.993166 16.340881 13.067842 # 3 
121 2 1 -0.250000 13.971762 16.728861 12.179071 # 1 
122 2 2 0.250000 13.032898 16.512262 12.290966 # 2 
123 2 1 -0.250000 13.982631 16.757444 13.148589 # 1 
124 2 2 0.250000 14.550326 17.377811 13.632084 # 2 
125 2 3 -1.000000 14.201598 16.453968 14.043495 # 3 
126 2 3 -1.000000 13.799453 16.355467 13.166297 # 3 
127 2 1 -0.250000 13.837640 16.247057 12.203131 # 1 
128 2 2 0.250000 13.845685 16.275490 11.233581 # 2 
129 2 1 -0.250000 14.782348 16.383970 12.030845 # 1 
130 2 2 0.250000 15.298117 15.779608 11.474403 # 2 
131 2 1 -0.250000 14.994286 16.910692 11.244369 # 1 
132 2 2 0.250000 15.570118 17.619066 10.916461 # 2 
133 3 1 -0.250000 10.702933 10.891118 2.927801 # 1 
134 3 2 0.250000 10.432832 10.908863 1.996334 # 2 
135 3 1 -0.250000 10.081281 11.191912 3.608956 # 1 
136 3 2 0.250000 9.748661 11.259366 4.517644 # 2 
137 3 1 -0.250000 10.292970 11.501033 2.714231 # 1 
138 3 2 0.250000 9.765503 11.726529 3.496427 # 2 
139 3 1 -0.250000 10.670092 11.339423 3.593186 # 1 
140 3 2 0.250000 10.190037 11.797503 4.300724 # 2 
141 3 1 -0.250000 10.032164 11.918830 3.147948 # 1 
142 3 2 0.250000 10.105304 11.581560 4.054480 # 2 
143 3 1 -0.250000 10.457280 12.148124 2.306759 # 1 
144 3 2 0.250000 11.389947 11.997468 2.526614 # 2 
145 3 1 -0.250000 11.313929 12.450079 1.966352 # 1 
146 3 2 0.250000 11.179172 12.627176 1.022225 # 2 
147 3 1 -0.250000 11.723479 13.040814 1.315046 # 1 
148 3 2 0.250000 12.043717 13.071515 0.399947 # 2 
149 3 3 -1.000000 11.502367 12.564113 2.130377 # 3 
150 3 1 -0.250000 11.380699 11.654720 1.815572 # 1 
151 3 2 0.250000 11.167433 12.421529 2.370028 # 2 
152 3 1 -0.250000 12.118178 11.784270 2.432208 # 1 
153 3 2 0.250000 11.808547 11.989198 1.536087 # 2 
154 3 3 -1.000000 11.362839 12.391192 2.477017 # 3 
155 3 1 -0.250000 11.208707 12.223258 3.419854 # 1 
156 3 2 0.250000 11.826129 12.838672 3.845243 # 2 
157 3 1 -0.250000 11.569666 13.112475 3.278782 # 1 
158 3 2 0.250000 12.224854 12.401379 3.201508 # 2 
159 3 1 -0.250000 11.946204 12.627280 2.527978 # 1 
160 3 2 0.250000 11.888591 12.051699 3.306623 # 2 
161 3 1 -0.250000 12.609592 12.371083 1.868298 # 1 
162 3 2 0.250000 12.947044 11.678771 2.457984 # 2 
163 3 1 -0.250000 12.690818 12.547661 2.818626 # 1 
164 3 2 0.250000 13.550827 12.144578 2.621625 # 2 
165 3 1 -0.250000 12.705997 12.882260 3.728962 # 1 
166 3 2 0.250000 12.244961 12.571265 2.934212 # 2 
167 3 3 -1.000000 12.481912 13.454066 2.978146 # 3 
168 3 1 -0.250000 12.795050 13.578632 2.068571 # 1 
169 3 2 0.250000 12.261891 14.357694 1.845626 # 2 
170 3 3 -1.000000 13.427754 12.855513 2.201556 # 3 
171 3 1 -0.250000 12.869732 12.151997 1.834709 # 1 
172 3 2 0.250000 12.493554 11.899521 2.692407 # 2 
173 3 1 -0.250000 12.245427 11.950286 2.549171 # 1 
174 3 2 0.250000 12.262364 11.300200 1.829447 # 2 
175 3 1 -0.250000 11.369933 12.028374 2.138911 # 1 
176 3 2 0.250000 10.512399 12.018566 2.592165 # 2 
177 3 1 -0.250000 11.738665 12.917313 2.017569 # 1 
178 3 2 0.250000 11.863728 12.974538 1.057368 # 2 
179 3 1 -0.250000 11.734814 12.325260 1.249221 # 1 
180 3 2 0.250000 11.675671 12.065799 0.316439 # 2 
181 3 1 -0.250000 11.038200 13.000254 1.252587 # 1 
182 3 2 0.250000 11.386348 12.558224 2.042715 # 2 
183 3 1 -0.250000 11.277278 12.817150 2.174658 # 1 
184 3 2 0.250000 10.974706 12.265842 2.913176 # 2 
185 3 3 -1.000000 11.327046 12.627543 1.224672 # 3 
186 3 1 -0.250000 12.232238 12.694164 0.882489 # 1 
187 3 2 0.250000 11.353034 12.974947 0.584059 # 2 
188 3 1 -0.250000 11.980236 12.167565 1.657142 # 1 
189 3 2 0.250000 11.452991 12.195400 0.843424 # 2 
190 3 1 -0.250000 11.286488 12.475410 1.053118 # 1 
191 3 2 0.250000 10.697960 13.243156 1.124531 # 2 
192 3 1 -0.250000 11.810132 11.667404 0.935541 # 1 
193 3 2 0.250000 11.818538 11.631158 -0.033745 # 2 
194 3 3 -1.000000 12.274601 11.545153 0.092794 # 3 
195 3 1 -0.250000 13.158107 11.289648 -0.215482 # 1 
196 3 2 0.250000 12.840737 11.517493 0.672360 # 2 
197 3 1 -0.250000 13.093931 11.468412 0.735741 # 1 
198 3 2 0.250000 13.516823 10.734007 1.207664 # 2 
199 4 1 -0.250000 3.031684 0.563084 3.892491 # 1 
200 4 2 0.250000 3.476497 1.130633 4.541282 # 2 
201 4 1 -0.250000 3.023096 0.578575 2.922653 # 1 
202 4 2 0.250000 3.025704 0.560324 1.952828 # 2 
203 4 1 -0.250000 3.981713 0.702793 2.841885 # 1 
204 4 2 0.250000 4.834407 0.246764 2.765396 # 2 
205 4 3 -1.000000 4.171812 -0.246229 2.777700 # 3 
206 4 1 -0.250000 3.381625 -0.542523 2.299460 # 1 
207 4 2 0.250000 3.575554 -1.216617 2.969452 # 2 
208 4 3 -1.000000 3.354908 -0.561766 1.330019 # 3 
209 4 1 -0.250000 3.298316 -0.621483 2.296524 # 1 
210 4 2 0.250000 3.189975 -0.666254 3.259414 # 2 
211 4 3 -1.000000 3.295317 -0.673100 1.327903 # 3 
212 4 1 -0.250000 3.857457 -1.331005 1.766149 # 1 
213 4 2 0.250000 3.341863 -1.326997 0.944536 # 2 
214 4 1 -0.250000 3.631284 -1.037697 0.869646 # 1 
215 4 2 0.250000 4.041418 -0.741536 0.042012 # 2 
216 4 1 -0.250000 3.306166 -1.941945 0.737235 # 1 
217 4 2 0.250000 2.592027 -2.371956 1.233215 # 2 
218 4 1 -0.250000 3.686495 -2.096991 -0.141520 # 1 
219 4 2 0.250000 3.675861 -2.083153 0.828323 # 2 
220 4 1 -0.250000 4.139497 -2.584012 -0.847566 # 1 
221 4 2 0.250000 5.022893 -2.929273 -1.050803 # 2 
222 4 1 -0.250000 3.577977 -2.728024 -0.069841 # 1 
223 4 2 0.250000 3.501374 -2.688684 -1.036011 # 2 
224 4 1 -0.250000 3.684205 -2.033481 0.598908 # 1 
225 4 2 0.250000 3.322373 -2.578380 -0.117376 # 2 
226 4 1 -0.250000 3.652093 -1.851852 1.551210 # 1 
227 4 2 0.250000 2.834256 -1.769190 2.066195 # 2 
228 4 1 -0.250000 3.296521 -1.786448 0.651104 # 1 
229 4 2 0.250000 3.572964 -1.777768 -0.278629 # 2 
230 4 1 -0.250000 3.186142 -2.748934 0.699449 # 1 
231 4 2 0.250000 3.445133 -1.817089 0.625367 # 2 
232 4 3 -1.000000 3.199088 -2.802778 -0.268969 # 3 
233 4 1 -0.250000 2.755996 -2.817846 -1.131722 # 1 
234 4 2 0.250000 2.785454 -2.909240 -2.096957 # 2 
235 4 1 -0.250000 2.399393 -2.890968 -0.232619 # 1 
236 4 2 0.250000 2.418908 -2.843235 0.736010 # 2 
237 4 1 -0.250000 1.827311 -2.330550 0.314697 # 1 
238 4 2 0.250000 1.955139 -2.979903 1.023852 # 2 
239 4 1 -0.250000 2.091340 -1.931356 -0.529005 # 1 
240 4 2 0.250000 2.184237 -1.055541 -0.122534 # 2 
241 4 1 -0.250000 2.265077 -1.585663 0.360496 # 1 
242 4 2 0.250000 3.176803 -1.451948 0.663441 # 2 
243 4 1 -0.250000 1.899674 -1.775560 1.238744 # 1 
244 4 2 0.250000 1.305037 -2.382086 1.707182 # 2 
245 4 1 -0.250000 2.319384 -1.429034 2.041653 # 1 
246 4 2 0.250000 2.296517 -1.397836 3.010881 # 2 
247 4 1 -0.250000 2.731098 -0.552269 2.093385 # 1 
248 4 2 0.250000 2.762855 -0.610419 1.125650 # 2 
249 4 1 -0.250000 3.033750 -0.713483 1.186019 # 1 
250 4 2 0.250000 3.124105 -1.639695 0.912403 # 2 
251 4 3 -1.000000 2.189847 -0.603545 1.651466 # 3 
252 4 1 -0.250000 2.200481 -0.799582 2.601391 # 1 
253 4 2 0.250000 2.531419 -0.794779 3.513178 # 2 
254 4 1 -0.250000 2.516005 0.112609 2.697585 # 1 
255 4 2 0.250000 1.992039 -0.330550 3.383129 # 2 
256 4 1 -0.250000 2.517023 0.113139 1.727586 # 1 
257 4 2 0.250000 3.198247 0.245851 2.405245 # 2 
258 4 1 -0.250000 2.361753 0.065023 0.771303 # 1 
259 4 2 0.250000 2.237312 0.425457 1.663212 # 2 
260 4 1 -0.250000 2.687605 0.975259 0.849986 # 1 
261 4 2 0.250000 2.668336 1.665206 1.531530 # 2 
262 4 3 -1.000000 2.146236 1.774685 0.943467 # 3 
263 4 1 -0.250000 2.141807 2.252791 1.787442 # 1 
264 4 2 0.250000 2.261513 2.428283 0.840990 # 2 
265 5 1 -0.250000 1.020305 3.283011 2.076485 # 1 
266 5 2 0.250000 1.266959 3.959198 1.426229 # 2 
267 5 3 -1.000000 1.335874 3.734643 1.278146 # 3 
268 5 3 -1.000000 1.167949 3.924736 0.341895 # 3 
269 5 3 -1.000000 1.194388 3.211338 0.998603 # 3 
270 5 1 -0.250000 1.961264 2.637636 0.844760 # 1 
271 5 2 0.250000 1.772438 2.849797 1.772248 # 2 
272 5 1 -0.250000 1.949269 1.715227 0.544897 # 1 
273 5 2 0.250000 1.032753 1.891794 0.280845 # 2 
274 5 1 -0.250000 2.107420 2.332210 -0.186690 # 1 
275 5 2 0.250000 2.136626 3.300727 -0.141723 # 2 
276 5 3 -1.000000 1.917684 2.179762 0.752277 # 3 
277 5 1 -0.250000 2.340197 1.624031 0.078819 # 1 
278 5 2 0.250000 1.509511 2.096003 0.246459 # 2 
279 5 1 -0.250000 2.947252 1.558145 -0.674868 # 1 
280 5 2 0.250000 3.727529 2.042303 -0.987374 # 2 
281 5 1 -0.250000 3.312725 0.704250 -0.954495 # 1 
282 5 2 0.250000 3.443393 0.489838 -0.017557 # 2 
283 5 1 -0.250000 3.146927 1.086665 -1.830378 # 1 
284 5 2 0.250000 3.302547 0.946263 -2.777462 # 2 
285 5 1 -0.250000 3.479089 1.012111 -0.922077 # 1 
286 5 2 0.250000 3.427583 1.980689 -0.911903 # 2 
287 5 1 -0.250000 3.548962 0.888481 0.037472 # 1 
288 5 2 0.250000 3.342247 0.168333 -0.578609 # 2 
289 5 3 -1.000000 4.245379 0.802691 0.707205 # 3 
290 5 3 -1.000000 3.835731 1.662133 0.521604 # 3 
291 5 1 -0.250000 4.682884 1.463585 0.092872 # 1 
292 5 2 0.250000 5.491072 1.230899 0.576184 # 2 
293 5 1 -0.250000 4.831300 2.148289 0.763732 # 1 
294 5 2 0.250000 5.199458 2.348081 -0.111164 # 2 
295 5 1 -0.250000 3.973793 2.468497 1.084746 # 1 
296 5 2 0.250000 4.443238 2.632482 0.251901 # 2 
297 5 1 -0.250000 3.979998 2.468574 2.054726 # 1 
298 5 2 0.250000 3.241867 2.570522 2.675748 # 2 
299 5 1 -0.250000 4.039525 2.965674 1.223915 # 1 
300 5 2 0.250000 4.021886 2.803945 2.180174 # 2 
301 5 1 -0.250000 4.030366 2.167252 1.774677 # 1 
302 5 2 0.250000 3.508185 2.984636 1.785194 # 2 
303 5 1 -0.250000 3.398096 2.698697 1.266049 # 1 
304 5 2 0.250000 4.125035 3.340862 1.275235 # 2 
305 5 1 -0.250000 3.435533 2.648955 2.234049 # 1 
306 5 2 0.250000 3.423342 2.694410 3.202907 # 2 
307 5 1 -0.250000 4.083438 2.761181 2.947158 # 1 
308 5 2 0.250000 4.406508 2.765369 2.032549 # 2 
309 5 1 -0.250000 3.668239 2.779222 2.070696 # 1 
310 5 2 0.250000 3.631707 2.796387 1.101537 # 2 
311 5 1 -0.250000 2.884267 2.460230 1.596849 # 1 
312 5 2 0.250000 2.931412 2.971372 2.419899 # 2 
313 5 1 -0.250000 2.640630 1.587800 1.943845 # 1 
314 5 2 0.250000 2.595937 1.309003 2.871841 # 2 
315 5 1 -0.250000 3.468034 1.537193 1.440117 # 1 
316 5 2 0.250000 3.347373 0.894679 2.156718 # 2 
317 5 1 -0.250000 3.504750 2.462064 1.150004 # 1 
318 5 2 0.250000 3.718491 2.396403 2.093881 # 2 
319 5 1 -0.250000 4.400681 2.832087 1.114067 # 1 
320 5 2 0.250000 3.447121 3.009562 1.125369 # 2 
321 5 1 -0.250000 4.065468 2.031830 0.680339 # 1 
322 5 2 0.250000 4.384459 1.609776 1.493368 # 2 
323 5 1 -0.250000 4.998640 2.114783 0.931752 # 1 
324 5 2 0.250000 5.087682 2.582912 0.086869 # 2 
325 5 1 -0.250000 4.727152 3.038634 1.048771 # 1 
326 5 2 0.250000 5.646577 3.346918 1.071552 # 2 
327 5 1 -0.250000 3.998460 2.482411 1.365827 # 1 
328 5 2 0.250000 4.324850 1.942311 2.102483 # 2 
329 5 1 -0.250000 3.611546 2.550072 0.478912 # 1 
330 5 2 0.250000 2.873773 2.069786 0.886241 # 2 
331 6 1 -0.250000 4.815099 4.415499 14.640217 # 1 
332 6 2 0.250000 5.688779 4.083736 14.900057 # 2 
333 6 1 -0.250000 4.629497 4.242087 13.704066 # 1 
334 6 2 0.250000 4.570595 4.205177 14.671572 # 2 
335 6 3 -1.000000 3.828976 3.823349 13.350904 # 3 
336 6 1 -0.250000 3.364487 3.948758 14.193176 # 1 
337 6 2 0.250000 2.802123 3.573422 14.888712 # 2 
338 6 1 -0.250000 3.610294 3.649671 15.082572 # 1 
339 6 2 0.250000 3.130976 2.984737 14.563903 # 2 
340 6 3 -1.000000 3.971321 4.172504 15.815515 # 3 
341 6 1 -0.250000 3.536922 4.202648 14.948746 # 1 
342 6 2 0.250000 4.143182 4.652902 14.339960 # 2 
343 6 3 -1.000000 3.201726 4.128875 15.855995 # 3 
344 6 1 -0.250000 3.339045 4.111103 16.816061 # 1 
345 6 2 0.250000 3.727136 3.394211 16.290369 # 2 
346 6 1 -0.250000 3.585351 3.730224 15.958643 # 1 
347 6 2 0.250000 3.205601 3.287949 15.183348 # 2 
348 6 1 -0.250000 4.359571 3.444526 16.468409 # 1 
349 6 2 0.250000 3.907654 4.293577 16.342779 # 2 
350 6 1 -0.250000 3.595385 3.207466 17.016788 # 1 
351 6 2 0.250000 3.248178 2.698109 16.267855 # 2 
352 6 1 -0.250000 4.111986 2.737801 17.690166 # 1 
353 6 2 0.250000 4.669025 2.218912 17.089033 # 2 
354 6 1 -0.250000 4.124964 2.883462 16.731255 # 1 
355 6 2 0.250000 4.644371 3.603255 17.122423 # 2 
356 6 1 -0.250000 4.819171 2.231888 16.545708 # 1 
357 6 2 0.250000 4.503571 3.148098 16.502630 # 2 
358 6 3 -1.000000 4.642591 1.281476 16.465477 # 3 
359 6 1 -0.250000 4.583666 1.527846 15.529139 # 1 
360 6 2 0.250000 4.536498 1.689054 16.484486 # 2 
361 6 3 -1.000000 4.463763 1.775163 14.598893 # 3 
362 6 1 -0.250000 4.681107 1.093858 15.254244 # 1 
363 6 2 0.250000 4.768334 1.172221 16.217131 # 2 
364 6 1 -0.250000 5.589650 1.024732 15.586915 # 1 
365 6 2 0.250000 5.811860 1.564560 14.812248 # 2 
366 6 1 -0.250000 5.703511 1.109258 14.627337 # 1 
367 6 2 0.250000 5.486980 1.349403 13.712818 # 2 
368 6 1 -0.250000 5.304195 1.216289 15.504828 # 1 
369 6 2 0.250000 5.529622 1.640096 14.661934 # 2 
370 6 1 -0.250000 5.594082 0.490927 16.079906 # 1 
371 6 2 0.250000 5.399877 0.351716 15.139798 # 2 
372 6 1 -0.250000 4.683509 0.628317 16.384672 # 1 
373 6 2 0.250000 4.580231 1.310477 17.066502 # 2 
374 6 1 -0.250000 4.232484 -0.091563 15.916430 # 1 
375 6 2 0.250000 4.419275 0.820108 15.642815 # 2 
376 6 1 -0.250000 4.247267 -0.086950 14.946554 # 1 
377 6 2 0.250000 4.842417 0.323088 15.593521 # 2 
378 6 1 -0.250000 3.877308 0.767015 14.673104 # 1 
379 6 2 0.250000 4.238056 0.979451 13.798100 # 2 
380 6 1 -0.250000 3.062680 0.243265 14.618634 # 1 
381 6 2 0.250000 3.157113 0.433068 15.565184 # 2 
382 6 1 -0.250000 2.459943 -0.420427 14.248335 # 1 
383 6 2 0.250000 1.967354 0.157982 14.851410 # 2 
384 6 1 -0.250000 3.385501 -0.424357 13.958117 # 1 
385 6 2 0.250000 2.864263 -0.591145 13.157247 # 2 
386 6 1 -0.250000 3.746375 0.469777 14.063924 # 1 
387 6 2 0.250000 4.258027 0.833579 14.803356 # 2 
388 6 1 -0.250000 2.986900 -0.117662 13.926037 # 1 
389 6 2 0.250000 2.864094 -0.032315 12.967635 # 2 
390 6 1 -0.250000 2.478461 -0.904142 14.178705 # 1 
391 6 2 0.250000 2.532544 -0.937636 15.146616 # 2 
392 6 1 -0.250000 2.994562 -0.789061 13.365503 # 1 
393 6 2 0.250000 2.279984 -1.398734 13.123473 # 2 
394 6 3 -1.000000 2.944466 -1.652095 13.805461 # 3 
395 6 1 -0.250000 2.478399 -2.376256 14.251861 # 1 
396 6 2 0.250000 1.536919 -2.374079 14.485335 # 2 
397 7 1 -0.250000 17.093864 15.120456 4.378438 # 1 
398 7 2 0.250000 16.807352 15.622708 3.599622 # 2 
399 7 3 -1.000000 17.007437 14.812203 3.462790 # 3 
400 7 1 -0.250000 16.818445 14.328690 4.282179 # 1 
401 7 2 0.250000 17.473627 14.262855 3.569925 # 2 
402 7 1 -0.250000 16.715473 14.813071 3.448110 # 1 
403 7 2 0.250000 16.293873 15.009205 2.596826 # 2 
404 7 1 -0.250000 17.141535 13.961893 3.634837 # 1 
405 7 2 0.250000 17.861177 14.504250 3.993814 # 2 
406 7 1 -0.250000 17.074226 13.796556 2.681405 # 1 
407 7 2 0.250000 17.319796 13.004845 2.177629 # 2 
408 7 1 -0.250000 16.372690 13.722725 2.015600 # 1 
409 7 2 0.250000 16.935469 13.218536 2.623856 # 2 
410 7 1 -0.250000 16.195765 13.465060 2.933863 # 1 
411 7 2 0.250000 16.307158 12.501485 2.937665 # 2 
412 7 1 -0.250000 16.714277 13.695605 2.147165 # 1 
413 7 2 0.250000 17.303579 14.141264 2.775665 # 2 
414 7 1 -0.250000 17.112934 13.738383 1.263908 # 1 
415 7 2 0.250000 16.259775 13.458065 1.630573 # 2 
416 7 1 -0.250000 17.105499 13.745514 0.293963 # 1 
417 7 2 0.250000 17.906956 13.957653 -0.209590 # 2 
418 7 1 -0.250000 16.567532 12.991663 0.582402 # 1 
419 7 2 0.250000 15.941650 12.846036 1.309015 # 2 
420 7 1 -0.250000 16.220991 12.446531 -0.141229 # 1 
421 7 2 0.250000 16.012077 12.607168 0.792285 # 2 
422 7 1 -0.250000 16.268148 13.185959 -0.767266 # 1 
423 7 2 0.250000 16.695709 13.910296 -1.250410 # 2 
424 7 1 -0.250000 15.817743 13.594036 -1.523247 # 1 
425 7 2 0.250000 16.705561 13.951726 -1.680529 # 2 
426 7 1 -0.250000 15.521757 14.098578 -0.749471 # 1 
427 7 2 0.250000 15.123410 14.091003 0.134928 # 2 
428 7 3 -1.000000 15.298939 14.523927 -1.592283 # 3 
429 7 1 -0.250000 16.150009 14.910533 -1.851343 # 1 
430 7 2 0.250000 16.207417 14.910724 -0.883044 # 2 
431 7 3 -1.000000 15.478041 15.609708 -1.873965 # 3 
432 7 1 -0.250000 14.719993 15.492074 -2.467620 # 1 
433 7 2 0.250000 15.685522 15.583446 -2.485115 # 2 
434 7 1 -0.250000 15.166051 15.156342 -1.674388 # 1 
435 7 2 0.250000 15.031920 15.199032 -0.714656 # 2 
436 7 1 -0.250000 14.523597 15.200643 -0.948998 # 1 
437 7 2 0.250000 15.336438 14.723908 -1.179028 # 2 
438 7 1 -0.250000 14.327261 14.415424 -0.414411 # 1 
439 7 2 0.250000 15.156188 13.925139 -0.530173 # 2 
440 7 1 -0.250000 14.032993 14.160736 -1.302915 # 1 
441 7 2 0.250000 13.753819 14.728754 -2.037978 # 2 
442 7 1 -0.250000 13.851787 14.058083 -0.355536 # 1 
443 7 2 0.250000 14.038688 14.249232 -1.287969 # 2 
444 7 1 -0.250000 14.667036 14.047179 -0.881036 # 1 
445 7 2 0.250000 13.926426 14.673591 -0.883181 # 2 
446 7 1 -0.250000 14.737774 14.041021 0.086362 # 1 
447 7 2 0.250000 14.750967 13.902709 1.046359 # 2 
448 7 1 -0.250000 14.373749 13.387379 0.703726 # 1 
449 7 2 0.250000 14.712462 14.129943 0.179538 # 2 
450 7 3 -1.000000 14.391698 14.351562 0.808269 # 3 
451 7 3 -1.000000 14.871135 14.002368 1.575800 # 3 
452 7 1 -0.250000 14.655626 13.237254 1.019872 # 1 
453 7 2 0.250000 14.814136 13.785261 0.235357 # 2 
454 7 1 -0.250000 15.092322 13.142640 0.158916 # 1 
455 7 2 0.250000 15.406058 13.281771 1.066172 # 2 
456 7 1 -0.250000 15.060745 13.161801 1.128213 # 1 
457 7 2 0.250000 15.467804 13.874255 1.645525 # 2 
458 7 1 -0.250000 14.193694 12.854415 1.435843 # 1 
459 7 2 0.250000 15.013362 13.290568 1.716582 # 2 
460 7 3 -1.000000 14.181608 12.846290 2.405734 # 3 
461 7 1 -0.250000 14.612304 12.412078 3.158635 # 1 
462 7 2 0.250000 13.806907 12.838690 2.826617 # 2 
463 8 1 -0.250000 17.106886 3.858804 0.978546 # 1 
464 8 2 0.250000 17.214083 4.811078 0.828268 # 2 
465 8 1 -0.250000 16.584883 4.003786 1.783154 # 1 
466 8 2 0.250000 16.448364 4.623211 2.517031 # 2 
467 8 1 -0.250000 16.913774 3.129960 1.520174 # 1 
468 8 2 0.250000 17.338633 3.603630 2.252316 # 2 
469 8 1 -0.250000 17.728830 3.602016 1.288341 # 1 
470 8 2 0.250000 17.468294 3.086057 2.067319 # 2 
471 8 1 -0.250000 17.921316 3.768558 0.352332 # 1 
472 8 2 0.250000 17.136080 3.694260 0.916941 # 2 
473 8 1 -0.250000 17.779678 3.669612 1.306821 # 1 
474 8 2 0.250000 18.112797 3.805602 0.406021 # 2 
475 8 1 -0.250000 18.700390 3.364543 1.295668 # 1 
476 8 2 0.250000 18.421768 3.760042 0.454923 # 2 
477 8 1 -0.250000 18.691368 3.527701 2.251805 # 1 
478 8 2 0.250000 18.637440 3.603578 3.217328 # 2 
479 8 1 -0.250000 18.756008 3.478784 1.285198 # 1 
480 8 2 0.250000 19.541651 3.806499 0.820152 # 2 
481 8 1 -0.250000 18.021433 3.139429 0.750280 # 1 
482 8 2 0.250000 18.561335 3.547252 0.055236 # 2 
483 8 1 -0.250000 18.288496 3.565110 -0.079402 # 1 
484 8 2 0.250000 18.320015 3.450031 -1.042036 # 2 
485 8 1 -0.250000 18.282948 3.432439 0.881466 # 1 
486 8 2 0.250000 18.775936 2.941740 0.205392 # 2 
487 8 1 -0.250000 17.681856 4.190704 0.949448 # 1 
488 8 2 0.250000 17.020296 3.962644 0.277713 # 2 
489 8 1 -0.250000 17.728436 4.399239 0.003274 # 1 
490 8 2 0.250000 17.645350 4.356330 -0.962207 # 2 
491 8 3 -1.000000 18.015842 4.525345 0.921095 # 3 
492 8 3 -1.000000 18.970163 4.428284 0.777042 # 3 
493 8 1 -0.250000 18.876865 3.694172 0.149925 # 1 
494 8 2 0.250000 18.587727 2.848443 0.526807 # 2 
495 8 1 -0.250000 18.297642 4.365069 0.544002 # 1 
496 8 2 0.250000 18.302881 4.363102 1.513986 # 2 
497 8 1 -0.250000 18.114782 4.584167 -0.383068 # 1 
498 8 2 0.250000 18.134817 4.860642 0.546480 # 2 
499 8 1 -0.250000 17.527470 5.354917 -0.339386 # 1 
500 8 2 0.250000 16.623552 5.287691 0.006033 # 2 
501 8 1 -0.250000 17.639906 4.401884 -0.198013 # 1 
502 8 2 0.250000 16.910973 4.449875 -0.836177 # 2 
503 8 3 -1.000000 17.591499 4.925590 -1.013051 # 3 
504 8 1 -0.250000 18.434914 4.984777 -1.488499 # 1 
505 8 2 0.250000 18.329512 4.858549 -0.532540 # 2 
506 8 3 -1.000000 18.107601 5.380617 -0.665651 # 3 
507 8 3 -1.000000 17.949490 5.235218 0.280266 # 3 
508 8 1 -0.250000 17.498013 4.993923 1.104187 # 1 
509 8 2 0.250000 17.433878 5.090849 0.141175 # 2 
510 8 3 -1.000000 17.760048 4.618954 0.248829 # 3 
511 8 1 -0.250000 17.580696 4.461611 1.189030 # 1 
512 8 2 0.250000 17.600842 4.480224 0.219418 # 2 
513 8 1 -0.250000 17.946264 4.878457 1.984957 # 1 
514 8 2 0.250000 17.047544 4.667698 1.686993 # 2 
515 8 1 -0.250000 18.158878 5.424107 2.758237 # 1 
516 8 2 0.250000 18.880465 4.834760 2.488272 # 2 
517 8 1 -0.250000 18.136446 6.248482 3.268925 # 1 
518 8 2 0.250000 18.886292 6.754126 3.619574 # 2 
519 8 1 -0.250000 17.378481 5.866607 3.738563 # 1 
520 8 2 0.250000 17.040335 6.393489 4.479476 # 2 
521 8 1 -0.250000 16.717955 5.389501 4.264848 # 1 
522 8 2 0.250000 17.006529 4.894801 5.047725 # 2 
523 8 1 -0.250000 17.652555 5.150070 4.164371 # 1 
524 8 2 0.250000 18.221519 5.599347 3.519910 # 2 
525 8 1 -0.250000 18.419350 5.704512 4.377723 # 1 
526 8 2 0.250000 18.092892 6.063704 5.217547 # 2 
527 8 1 -0.250000 17.480158 5.462376 4.391481 # 1 
528 8 2 0.250000 17.679110 5.550788 3.446229 # 2 
529 9 1 -0.250000 8.982732 9.141964 2.458154 # 1 
530 9 2 0.250000 9.465107 9.792233 1.923959 # 2 
531 9 1 -0.250000 8.393915 9.809735 2.843220 # 1 
532 9 2 0.250000 8.871743 9.023976 3.151704 # 2 
533 9 3 -1.000000 8.183469 10.647689 2.402259 # 3 
534 9 3 -1.000000 8.180748 10.655164 3.372226 # 3 
535 9 1 -0.250000 8.183417 10.693207 2.402976 # 1 
536 9 2 0.250000 8.211822 10.688368 1.433404 # 2 
537 9 1 -0.250000 8.248385 11.324828 3.136279 # 1 
538 9 2 0.250000 8.048643 11.370210 4.084406 # 2 
539 9 1 -0.250000 8.120960 12.235589 3.444790 # 1 
540 9 2 0.250000 8.513695 12.895535 4.037352 # 2 
541 9 3 -1.000000 8.062803 12.230159 2.476550 # 3 
542 9 1 -0.250000 7.123698 12.373508 2.280507 # 1 
543 9 2 0.250000 6.809868 13.249014 2.556006 # 2 
544 9 1 -0.250000 6.331857 11.845214 2.467038 # 1 
545 9 2 0.250000 7.021763 11.665230 3.124713 # 2 
546 9 1 -0.250000 6.103918 11.854312 3.409832 # 1 
547 9 2 0.250000 6.388295 12.471867 2.717982 # 2 
548 9 3 -1.000000 7.017157 11.938621 3.093941 # 3 
549 9 1 -0.250000 6.991491 11.923385 4.063482 # 1 
550 9 2 0.250000 6.184746 12.333196 4.412936 # 2 
551 9 1 -0.250000 6.139806 11.459158 4.058427 # 1 
552 9 2 0.250000 6.547223 11.610222 4.925659 # 2 
553 9 1 -0.250000 5.578224 11.388961 3.270646 # 1 
554 9 2 0.250000 5.389392 11.134873 2.353760 # 2 
555 9 1 -0.250000 5.946379 12.188473 3.678252 # 1 
556 9 2 0.250000 5.464047 12.899746 3.228423 # 2 
557 9 1 -0.250000 6.063448 12.280346 4.636769 # 1 
558 9 2 0.250000 6.105247 12.472765 5.586573 # 2 
559 9 1 -0.250000 6.934884 12.381664 4.222965 # 1 
560 9 2 0.250000 6.433701 11.581631 4.000113 # 2 
561 9 1 -0.250000 7.354972 13.183593 3.874633 # 1 
562 9 2 0.250000 6.609326 13.075374 3.263732 # 2 
563 9 1 -0.250000 7.056851 13.150764 2.952166 # 1 
564 9 2 0.250000 7.019314 13.131566 1.983083 # 2 
565 9 1 -0.250000 7.708161 13.751191 3.347366 # 1 
566 9 2 0.250000 7.631984 13.840747 2.384518 # 2 
567 9 1 -0.250000 7.906623 14.671906 3.115427 # 1 
568 9 2 0.250000 8.798860 14.874987 2.793602 # 2 
569 9 1 -0.250000 7.143175 15.244828 2.942775 # 1 
570 9 2 0.250000 7.458274 15.243218 3.860169 # 2 
571 9 3 -1.000000 7.335496 14.958629 2.036132 # 3 
572 9 1 -0.250000 7.686501 15.408663 1.251807 # 1 
573 9 2 0.250000 8.467903 14.838026 1.320246 # 2 
574 9 1 -0.250000 7.127977 15.802036 0.563179 # 1 
575 9 2 0.250000 7.177980 16.189741 1.450920 # 2 
576 9 3 -1.000000 7.718398 15.641402 -0.189483 # 3 
577 9 1 -0.250000 6.805642 15.376100 -0.382854 # 1 
578 9 2 0.250000 6.973912 14.996708 0.493871 # 2 
579 9 1 -0.250000 7.236704 16.194267 -0.090127 # 1 